# Questa Intel Starter FPGA Edition-64 vlog 2024.3 Compiler 2024.09 Sep 10 2024
# Start time: 22:37:46 on Oct 20,2025
# vlog -reportprogress 300 ../../src/full_adder.v 
# -- Compiling module full_adder
# 
# Top level modules:
# 	full_adder
# End time: 22:37:47 on Oct 20,2025, Elapsed time: 0:00:01
# Errors: 0, Warnings: 0
# Questa Intel Starter FPGA Edition-64 vlog 2024.3 Compiler 2024.09 Sep 10 2024
# Start time: 22:37:47 on Oct 20,2025
# vlog -reportprogress 300 ../../src/ripple_carry_adder_4bit.v 
# -- Compiling module ripple_carry_adder_4bit
# 
# Top level modules:
# 	ripple_carry_adder_4bit
# End time: 22:37:47 on Oct 20,2025, Elapsed time: 0:00:00
# Errors: 0, Warnings: 0
# Questa Intel Starter FPGA Edition-64 vlog 2024.3 Compiler 2024.09 Sep 10 2024
# Start time: 22:37:47 on Oct 20,2025
# vlog -reportprogress 300 ../../sim/ripple_carry_adder_4bit_tb.v 
# -- Compiling module ripple_carry_adder_4bit_tb
# 
# Top level modules:
# 	ripple_carry_adder_4bit_tb
# End time: 22:37:47 on Oct 20,2025, Elapsed time: 0:00:00
# Errors: 0, Warnings: 0
# vsim -voptargs=""+acc"" work.ripple_carry_adder_4bit_tb 
# Start time: 22:37:47 on Oct 20,2025
# ** Note: (vsim-8009) Loading existing optimized design _opt2
# Loading work.ripple_carry_adder_4bit_tb(fast)
# Loading work.ripple_carry_adder_4bit(fast)
# Loading work.full_adder(fast)
# Time        | A       B       CIN        | COUT        SUM | Expected     |    Result
# 3000        | 0000      0000     0         | 0        0000 | 00000   |    PASS
# 11000        | 0000      0000     1         | 0        0001 | 00001   |    PASS
# 19000        | 0000      0001     0         | 0        0001 | 00001   |    PASS
# 27000        | 0000      0001     1         | 0        0010 | 00010   |    PASS
# 35000        | 0000      0010     0         | 0        0010 | 00010   |    PASS
# 43000        | 0000      0010     1         | 0        0011 | 00011   |    PASS
# 51000        | 0000      0011     0         | 0        0011 | 00011   |    PASS
# 59000        | 0000      0011     1         | 0        0100 | 00100   |    PASS
# 67000        | 0000      0100     0         | 0        0100 | 00100   |    PASS
# 75000        | 0000      0100     1         | 0        0101 | 00101   |    PASS
# 83000        | 0000      0101     0         | 0        0101 | 00101   |    PASS
# 91000        | 0000      0101     1         | 0        0110 | 00110   |    PASS
# 99000        | 0000      0110     0         | 0        0110 | 00110   |    PASS
# 107000        | 0000      0110     1         | 0        0111 | 00111   |    PASS
# 115000        | 0000      0111     0         | 0        0111 | 00111   |    PASS
# 123000        | 0000      0111     1         | 0        1000 | 01000   |    PASS
# 131000        | 0000      1000     0         | 0        1000 | 01000   |    PASS
# 139000        | 0000      1000     1         | 0        1001 | 01001   |    PASS
# 147000        | 0000      1001     0         | 0        1001 | 01001   |    PASS
# 155000        | 0000      1001     1         | 0        1010 | 01010   |    PASS
# 163000        | 0000      1010     0         | 0        1010 | 01010   |    PASS
# 171000        | 0000      1010     1         | 0        1011 | 01011   |    PASS
# 179000        | 0000      1011     0         | 0        1011 | 01011   |    PASS
# 187000        | 0000      1011     1         | 0        1100 | 01100   |    PASS
# 195000        | 0000      1100     0         | 0        1100 | 01100   |    PASS
# 203000        | 0000      1100     1         | 0        1101 | 01101   |    PASS
# 211000        | 0000      1101     0         | 0        1101 | 01101   |    PASS
# 219000        | 0000      1101     1         | 0        1110 | 01110   |    PASS
# 227000        | 0000      1110     0         | 0        1110 | 01110   |    PASS
# 235000        | 0000      1110     1         | 0        1111 | 01111   |    PASS
# 243000        | 0000      1111     0         | 0        1111 | 01111   |    PASS
# 251000        | 0000      1111     1         | 1        0000 | 10000   |    PASS
# 259000        | 0001      0000     0         | 0        0001 | 00001   |    PASS
# 267000        | 0001      0000     1         | 0        0010 | 00010   |    PASS
# 275000        | 0001      0001     0         | 0        0010 | 00010   |    PASS
# 283000        | 0001      0001     1         | 0        0011 | 00011   |    PASS
# 291000        | 0001      0010     0         | 0        0011 | 00011   |    PASS
# 299000        | 0001      0010     1         | 0        0100 | 00100   |    PASS
# 307000        | 0001      0011     0         | 0        0100 | 00100   |    PASS
# 315000        | 0001      0011     1         | 0        0101 | 00101   |    PASS
# 323000        | 0001      0100     0         | 0        0101 | 00101   |    PASS
# 331000        | 0001      0100     1         | 0        0110 | 00110   |    PASS
# 339000        | 0001      0101     0         | 0        0110 | 00110   |    PASS
# 347000        | 0001      0101     1         | 0        0111 | 00111   |    PASS
# 355000        | 0001      0110     0         | 0        0111 | 00111   |    PASS
# 363000        | 0001      0110     1         | 0        1000 | 01000   |    PASS
# 371000        | 0001      0111     0         | 0        1000 | 01000   |    PASS
# 379000        | 0001      0111     1         | 0        1001 | 01001   |    PASS
# 387000        | 0001      1000     0         | 0        1001 | 01001   |    PASS
# 395000        | 0001      1000     1         | 0        1010 | 01010   |    PASS
# 403000        | 0001      1001     0         | 0        1010 | 01010   |    PASS
# 411000        | 0001      1001     1         | 0        1011 | 01011   |    PASS
# 419000        | 0001      1010     0         | 0        1011 | 01011   |    PASS
# 427000        | 0001      1010     1         | 0        1100 | 01100   |    PASS
# 435000        | 0001      1011     0         | 0        1100 | 01100   |    PASS
# 443000        | 0001      1011     1         | 0        1101 | 01101   |    PASS
# 451000        | 0001      1100     0         | 0        1101 | 01101   |    PASS
# 459000        | 0001      1100     1         | 0        1110 | 01110   |    PASS
# 467000        | 0001      1101     0         | 0        1110 | 01110   |    PASS
# 475000        | 0001      1101     1         | 0        1111 | 01111   |    PASS
# 483000        | 0001      1110     0         | 0        1111 | 01111   |    PASS
# 491000        | 0001      1110     1         | 1        0000 | 10000   |    PASS
# 499000        | 0001      1111     0         | 1        0000 | 10000   |    PASS
# 507000        | 0001      1111     1         | 1        0001 | 10001   |    PASS
# 515000        | 0010      0000     0         | 0        0010 | 00010   |    PASS
# 523000        | 0010      0000     1         | 0        0011 | 00011   |    PASS
# 531000        | 0010      0001     0         | 0        0011 | 00011   |    PASS
# 539000        | 0010      0001     1         | 0        0100 | 00100   |    PASS
# 547000        | 0010      0010     0         | 0        0100 | 00100   |    PASS
# 555000        | 0010      0010     1         | 0        0101 | 00101   |    PASS
# 563000        | 0010      0011     0         | 0        0101 | 00101   |    PASS
# 571000        | 0010      0011     1         | 0        0110 | 00110   |    PASS
# 579000        | 0010      0100     0         | 0        0110 | 00110   |    PASS
# 587000        | 0010      0100     1         | 0        0111 | 00111   |    PASS
# 595000        | 0010      0101     0         | 0        0111 | 00111   |    PASS
# 603000        | 0010      0101     1         | 0        1000 | 01000   |    PASS
# 611000        | 0010      0110     0         | 0        1000 | 01000   |    PASS
# 619000        | 0010      0110     1         | 0        1001 | 01001   |    PASS
# 627000        | 0010      0111     0         | 0        1001 | 01001   |    PASS
# 635000        | 0010      0111     1         | 0        1010 | 01010   |    PASS
# 643000        | 0010      1000     0         | 0        1010 | 01010   |    PASS
# 651000        | 0010      1000     1         | 0        1011 | 01011   |    PASS
# 659000        | 0010      1001     0         | 0        1011 | 01011   |    PASS
# 667000        | 0010      1001     1         | 0        1100 | 01100   |    PASS
# 675000        | 0010      1010     0         | 0        1100 | 01100   |    PASS
# 683000        | 0010      1010     1         | 0        1101 | 01101   |    PASS
# 691000        | 0010      1011     0         | 0        1101 | 01101   |    PASS
# 699000        | 0010      1011     1         | 0        1110 | 01110   |    PASS
# 707000        | 0010      1100     0         | 0        1110 | 01110   |    PASS
# 715000        | 0010      1100     1         | 0        1111 | 01111   |    PASS
# 723000        | 0010      1101     0         | 0        1111 | 01111   |    PASS
# 731000        | 0010      1101     1         | 1        0000 | 10000   |    PASS
# 739000        | 0010      1110     0         | 1        0000 | 10000   |    PASS
# 747000        | 0010      1110     1         | 1        0001 | 10001   |    PASS
# 755000        | 0010      1111     0         | 1        0001 | 10001   |    PASS
# 763000        | 0010      1111     1         | 1        0010 | 10010   |    PASS
# 771000        | 0011      0000     0         | 0        0011 | 00011   |    PASS
# 779000        | 0011      0000     1         | 0        0100 | 00100   |    PASS
# 787000        | 0011      0001     0         | 0        0100 | 00100   |    PASS
# 795000        | 0011      0001     1         | 0        0101 | 00101   |    PASS
# 803000        | 0011      0010     0         | 0        0101 | 00101   |    PASS
# 811000        | 0011      0010     1         | 0        0110 | 00110   |    PASS
# 819000        | 0011      0011     0         | 0        0110 | 00110   |    PASS
# 827000        | 0011      0011     1         | 0        0111 | 00111   |    PASS
# 835000        | 0011      0100     0         | 0        0111 | 00111   |    PASS
# 843000        | 0011      0100     1         | 0        1000 | 01000   |    PASS
# 851000        | 0011      0101     0         | 0        1000 | 01000   |    PASS
# 859000        | 0011      0101     1         | 0        1001 | 01001   |    PASS
# 867000        | 0011      0110     0         | 0        1001 | 01001   |    PASS
# 875000        | 0011      0110     1         | 0        1010 | 01010   |    PASS
# 883000        | 0011      0111     0         | 0        1010 | 01010   |    PASS
# 891000        | 0011      0111     1         | 0        1011 | 01011   |    PASS
# 899000        | 0011      1000     0         | 0        1011 | 01011   |    PASS
# 907000        | 0011      1000     1         | 0        1100 | 01100   |    PASS
# 915000        | 0011      1001     0         | 0        1100 | 01100   |    PASS
# 923000        | 0011      1001     1         | 0        1101 | 01101   |    PASS
# 931000        | 0011      1010     0         | 0        1101 | 01101   |    PASS
# 939000        | 0011      1010     1         | 0        1110 | 01110   |    PASS
# 947000        | 0011      1011     0         | 0        1110 | 01110   |    PASS
# 955000        | 0011      1011     1         | 0        1111 | 01111   |    PASS
# 963000        | 0011      1100     0         | 0        1111 | 01111   |    PASS
# 971000        | 0011      1100     1         | 1        0000 | 10000   |    PASS
# 979000        | 0011      1101     0         | 1        0000 | 10000   |    PASS
# 987000        | 0011      1101     1         | 1        0001 | 10001   |    PASS
# 995000        | 0011      1110     0         | 1        0001 | 10001   |    PASS
# 1003000        | 0011      1110     1         | 1        0010 | 10010   |    PASS
# 1011000        | 0011      1111     0         | 1        0010 | 10010   |    PASS
# 1019000        | 0011      1111     1         | 1        0011 | 10011   |    PASS
# 1027000        | 0100      0000     0         | 0        0100 | 00100   |    PASS
# 1035000        | 0100      0000     1         | 0        0101 | 00101   |    PASS
# 1043000        | 0100      0001     0         | 0        0101 | 00101   |    PASS
# 1051000        | 0100      0001     1         | 0        0110 | 00110   |    PASS
# 1059000        | 0100      0010     0         | 0        0110 | 00110   |    PASS
# 1067000        | 0100      0010     1         | 0        0111 | 00111   |    PASS
# 1075000        | 0100      0011     0         | 0        0111 | 00111   |    PASS
# 1083000        | 0100      0011     1         | 0        1000 | 01000   |    PASS
# 1091000        | 0100      0100     0         | 0        1000 | 01000   |    PASS
# 1099000        | 0100      0100     1         | 0        1001 | 01001   |    PASS
# 1107000        | 0100      0101     0         | 0        1001 | 01001   |    PASS
# 1115000        | 0100      0101     1         | 0        1010 | 01010   |    PASS
# 1123000        | 0100      0110     0         | 0        1010 | 01010   |    PASS
# 1131000        | 0100      0110     1         | 0        1011 | 01011   |    PASS
# 1139000        | 0100      0111     0         | 0        1011 | 01011   |    PASS
# 1147000        | 0100      0111     1         | 0        1100 | 01100   |    PASS
# 1155000        | 0100      1000     0         | 0        1100 | 01100   |    PASS
# 1163000        | 0100      1000     1         | 0        1101 | 01101   |    PASS
# 1171000        | 0100      1001     0         | 0        1101 | 01101   |    PASS
# 1179000        | 0100      1001     1         | 0        1110 | 01110   |    PASS
# 1187000        | 0100      1010     0         | 0        1110 | 01110   |    PASS
# 1195000        | 0100      1010     1         | 0        1111 | 01111   |    PASS
# 1203000        | 0100      1011     0         | 0        1111 | 01111   |    PASS
# 1211000        | 0100      1011     1         | 1        0000 | 10000   |    PASS
# 1219000        | 0100      1100     0         | 1        0000 | 10000   |    PASS
# 1227000        | 0100      1100     1         | 1        0001 | 10001   |    PASS
# 1235000        | 0100      1101     0         | 1        0001 | 10001   |    PASS
# 1243000        | 0100      1101     1         | 1        0010 | 10010   |    PASS
# 1251000        | 0100      1110     0         | 1        0010 | 10010   |    PASS
# 1259000        | 0100      1110     1         | 1        0011 | 10011   |    PASS
# 1267000        | 0100      1111     0         | 1        0011 | 10011   |    PASS
# 1275000        | 0100      1111     1         | 1        0100 | 10100   |    PASS
# 1283000        | 0101      0000     0         | 0        0101 | 00101   |    PASS
# 1291000        | 0101      0000     1         | 0        0110 | 00110   |    PASS
# 1299000        | 0101      0001     0         | 0        0110 | 00110   |    PASS
# 1307000        | 0101      0001     1         | 0        0111 | 00111   |    PASS
# 1315000        | 0101      0010     0         | 0        0111 | 00111   |    PASS
# 1323000        | 0101      0010     1         | 0        1000 | 01000   |    PASS
# 1331000        | 0101      0011     0         | 0        1000 | 01000   |    PASS
# 1339000        | 0101      0011     1         | 0        1001 | 01001   |    PASS
# 1347000        | 0101      0100     0         | 0        1001 | 01001   |    PASS
# 1355000        | 0101      0100     1         | 0        1010 | 01010   |    PASS
# 1363000        | 0101      0101     0         | 0        1010 | 01010   |    PASS
# 1371000        | 0101      0101     1         | 0        1011 | 01011   |    PASS
# 1379000        | 0101      0110     0         | 0        1011 | 01011   |    PASS
# 1387000        | 0101      0110     1         | 0        1100 | 01100   |    PASS
# 1395000        | 0101      0111     0         | 0        1100 | 01100   |    PASS
# 1403000        | 0101      0111     1         | 0        1101 | 01101   |    PASS
# 1411000        | 0101      1000     0         | 0        1101 | 01101   |    PASS
# 1419000        | 0101      1000     1         | 0        1110 | 01110   |    PASS
# 1427000        | 0101      1001     0         | 0        1110 | 01110   |    PASS
# 1435000        | 0101      1001     1         | 0        1111 | 01111   |    PASS
# 1443000        | 0101      1010     0         | 0        1111 | 01111   |    PASS
# 1451000        | 0101      1010     1         | 1        0000 | 10000   |    PASS
# 1459000        | 0101      1011     0         | 1        0000 | 10000   |    PASS
# 1467000        | 0101      1011     1         | 1        0001 | 10001   |    PASS
# 1475000        | 0101      1100     0         | 1        0001 | 10001   |    PASS
# 1483000        | 0101      1100     1         | 1        0010 | 10010   |    PASS
# 1491000        | 0101      1101     0         | 1        0010 | 10010   |    PASS
# 1499000        | 0101      1101     1         | 1        0011 | 10011   |    PASS
# 1507000        | 0101      1110     0         | 1        0011 | 10011   |    PASS
# 1515000        | 0101      1110     1         | 1        0100 | 10100   |    PASS
# 1523000        | 0101      1111     0         | 1        0100 | 10100   |    PASS
# 1531000        | 0101      1111     1         | 1        0101 | 10101   |    PASS
# 1539000        | 0110      0000     0         | 0        0110 | 00110   |    PASS
# 1547000        | 0110      0000     1         | 0        0111 | 00111   |    PASS
# 1555000        | 0110      0001     0         | 0        0111 | 00111   |    PASS
# 1563000        | 0110      0001     1         | 0        1000 | 01000   |    PASS
# 1571000        | 0110      0010     0         | 0        1000 | 01000   |    PASS
# 1579000        | 0110      0010     1         | 0        1001 | 01001   |    PASS
# 1587000        | 0110      0011     0         | 0        1001 | 01001   |    PASS
# 1595000        | 0110      0011     1         | 0        1010 | 01010   |    PASS
# 1603000        | 0110      0100     0         | 0        1010 | 01010   |    PASS
# 1611000        | 0110      0100     1         | 0        1011 | 01011   |    PASS
# 1619000        | 0110      0101     0         | 0        1011 | 01011   |    PASS
# 1627000        | 0110      0101     1         | 0        1100 | 01100   |    PASS
# 1635000        | 0110      0110     0         | 0        1100 | 01100   |    PASS
# 1643000        | 0110      0110     1         | 0        1101 | 01101   |    PASS
# 1651000        | 0110      0111     0         | 0        1101 | 01101   |    PASS
# 1659000        | 0110      0111     1         | 0        1110 | 01110   |    PASS
# 1667000        | 0110      1000     0         | 0        1110 | 01110   |    PASS
# 1675000        | 0110      1000     1         | 0        1111 | 01111   |    PASS
# 1683000        | 0110      1001     0         | 0        1111 | 01111   |    PASS
# 1691000        | 0110      1001     1         | 1        0000 | 10000   |    PASS
# 1699000        | 0110      1010     0         | 1        0000 | 10000   |    PASS
# 1707000        | 0110      1010     1         | 1        0001 | 10001   |    PASS
# 1715000        | 0110      1011     0         | 1        0001 | 10001   |    PASS
# 1723000        | 0110      1011     1         | 1        0010 | 10010   |    PASS
# 1731000        | 0110      1100     0         | 1        0010 | 10010   |    PASS
# 1739000        | 0110      1100     1         | 1        0011 | 10011   |    PASS
# 1747000        | 0110      1101     0         | 1        0011 | 10011   |    PASS
# 1755000        | 0110      1101     1         | 1        0100 | 10100   |    PASS
# 1763000        | 0110      1110     0         | 1        0100 | 10100   |    PASS
# 1771000        | 0110      1110     1         | 1        0101 | 10101   |    PASS
# 1779000        | 0110      1111     0         | 1        0101 | 10101   |    PASS
# 1787000        | 0110      1111     1         | 1        0110 | 10110   |    PASS
# 1795000        | 0111      0000     0         | 0        0111 | 00111   |    PASS
# 1803000        | 0111      0000     1         | 0        1000 | 01000   |    PASS
# 1811000        | 0111      0001     0         | 0        1000 | 01000   |    PASS
# 1819000        | 0111      0001     1         | 0        1001 | 01001   |    PASS
# 1827000        | 0111      0010     0         | 0        1001 | 01001   |    PASS
# 1835000        | 0111      0010     1         | 0        1010 | 01010   |    PASS
# 1843000        | 0111      0011     0         | 0        1010 | 01010   |    PASS
# 1851000        | 0111      0011     1         | 0        1011 | 01011   |    PASS
# 1859000        | 0111      0100     0         | 0        1011 | 01011   |    PASS
# 1867000        | 0111      0100     1         | 0        1100 | 01100   |    PASS
# 1875000        | 0111      0101     0         | 0        1100 | 01100   |    PASS
# 1883000        | 0111      0101     1         | 0        1101 | 01101   |    PASS
# 1891000        | 0111      0110     0         | 0        1101 | 01101   |    PASS
# 1899000        | 0111      0110     1         | 0        1110 | 01110   |    PASS
# 1907000        | 0111      0111     0         | 0        1110 | 01110   |    PASS
# 1915000        | 0111      0111     1         | 0        1111 | 01111   |    PASS
# 1923000        | 0111      1000     0         | 0        1111 | 01111   |    PASS
# 1931000        | 0111      1000     1         | 1        0000 | 10000   |    PASS
# 1939000        | 0111      1001     0         | 1        0000 | 10000   |    PASS
# 1947000        | 0111      1001     1         | 1        0001 | 10001   |    PASS
# 1955000        | 0111      1010     0         | 1        0001 | 10001   |    PASS
# 1963000        | 0111      1010     1         | 1        0010 | 10010   |    PASS
# 1971000        | 0111      1011     0         | 1        0010 | 10010   |    PASS
# 1979000        | 0111      1011     1         | 1        0011 | 10011   |    PASS
# 1987000        | 0111      1100     0         | 1        0011 | 10011   |    PASS
# 1995000        | 0111      1100     1         | 1        0100 | 10100   |    PASS
# 2003000        | 0111      1101     0         | 1        0100 | 10100   |    PASS
# 2011000        | 0111      1101     1         | 1        0101 | 10101   |    PASS
# 2019000        | 0111      1110     0         | 1        0101 | 10101   |    PASS
# 2027000        | 0111      1110     1         | 1        0110 | 10110   |    PASS
# 2035000        | 0111      1111     0         | 1        0110 | 10110   |    PASS
# 2043000        | 0111      1111     1         | 1        0111 | 10111   |    PASS
# 2051000        | 1000      0000     0         | 0        1000 | 01000   |    PASS
# 2059000        | 1000      0000     1         | 0        1001 | 01001   |    PASS
# 2067000        | 1000      0001     0         | 0        1001 | 01001   |    PASS
# 2075000        | 1000      0001     1         | 0        1010 | 01010   |    PASS
# 2083000        | 1000      0010     0         | 0        1010 | 01010   |    PASS
# 2091000        | 1000      0010     1         | 0        1011 | 01011   |    PASS
# 2099000        | 1000      0011     0         | 0        1011 | 01011   |    PASS
# 2107000        | 1000      0011     1         | 0        1100 | 01100   |    PASS
# 2115000        | 1000      0100     0         | 0        1100 | 01100   |    PASS
# 2123000        | 1000      0100     1         | 0        1101 | 01101   |    PASS
# 2131000        | 1000      0101     0         | 0        1101 | 01101   |    PASS
# 2139000        | 1000      0101     1         | 0        1110 | 01110   |    PASS
# 2147000        | 1000      0110     0         | 0        1110 | 01110   |    PASS
# 2155000        | 1000      0110     1         | 0        1111 | 01111   |    PASS
# 2163000        | 1000      0111     0         | 0        1111 | 01111   |    PASS
# 2171000        | 1000      0111     1         | 1        0000 | 10000   |    PASS
# 2179000        | 1000      1000     0         | 1        0000 | 10000   |    PASS
# 2187000        | 1000      1000     1         | 1        0001 | 10001   |    PASS
# 2195000        | 1000      1001     0         | 1        0001 | 10001   |    PASS
# 2203000        | 1000      1001     1         | 1        0010 | 10010   |    PASS
# 2211000        | 1000      1010     0         | 1        0010 | 10010   |    PASS
# 2219000        | 1000      1010     1         | 1        0011 | 10011   |    PASS
# 2227000        | 1000      1011     0         | 1        0011 | 10011   |    PASS
# 2235000        | 1000      1011     1         | 1        0100 | 10100   |    PASS
# 2243000        | 1000      1100     0         | 1        0100 | 10100   |    PASS
# 2251000        | 1000      1100     1         | 1        0101 | 10101   |    PASS
# 2259000        | 1000      1101     0         | 1        0101 | 10101   |    PASS
# 2267000        | 1000      1101     1         | 1        0110 | 10110   |    PASS
# 2275000        | 1000      1110     0         | 1        0110 | 10110   |    PASS
# 2283000        | 1000      1110     1         | 1        0111 | 10111   |    PASS
# 2291000        | 1000      1111     0         | 1        0111 | 10111   |    PASS
# 2299000        | 1000      1111     1         | 1        1000 | 11000   |    PASS
# 2307000        | 1001      0000     0         | 0        1001 | 01001   |    PASS
# 2315000        | 1001      0000     1         | 0        1010 | 01010   |    PASS
# 2323000        | 1001      0001     0         | 0        1010 | 01010   |    PASS
# 2331000        | 1001      0001     1         | 0        1011 | 01011   |    PASS
# 2339000        | 1001      0010     0         | 0        1011 | 01011   |    PASS
# 2347000        | 1001      0010     1         | 0        1100 | 01100   |    PASS
# 2355000        | 1001      0011     0         | 0        1100 | 01100   |    PASS
# 2363000        | 1001      0011     1         | 0        1101 | 01101   |    PASS
# 2371000        | 1001      0100     0         | 0        1101 | 01101   |    PASS
# 2379000        | 1001      0100     1         | 0        1110 | 01110   |    PASS
# 2387000        | 1001      0101     0         | 0        1110 | 01110   |    PASS
# 2395000        | 1001      0101     1         | 0        1111 | 01111   |    PASS
# 2403000        | 1001      0110     0         | 0        1111 | 01111   |    PASS
# 2411000        | 1001      0110     1         | 1        0000 | 10000   |    PASS
# 2419000        | 1001      0111     0         | 1        0000 | 10000   |    PASS
# 2427000        | 1001      0111     1         | 1        0001 | 10001   |    PASS
# 2435000        | 1001      1000     0         | 1        0001 | 10001   |    PASS
# 2443000        | 1001      1000     1         | 1        0010 | 10010   |    PASS
# 2451000        | 1001      1001     0         | 1        0010 | 10010   |    PASS
# 2459000        | 1001      1001     1         | 1        0011 | 10011   |    PASS
# 2467000        | 1001      1010     0         | 1        0011 | 10011   |    PASS
# 2475000        | 1001      1010     1         | 1        0100 | 10100   |    PASS
# 2483000        | 1001      1011     0         | 1        0100 | 10100   |    PASS
# 2491000        | 1001      1011     1         | 1        0101 | 10101   |    PASS
# 2499000        | 1001      1100     0         | 1        0101 | 10101   |    PASS
# 2507000        | 1001      1100     1         | 1        0110 | 10110   |    PASS
# 2515000        | 1001      1101     0         | 1        0110 | 10110   |    PASS
# 2523000        | 1001      1101     1         | 1        0111 | 10111   |    PASS
# 2531000        | 1001      1110     0         | 1        0111 | 10111   |    PASS
# 2539000        | 1001      1110     1         | 1        1000 | 11000   |    PASS
# 2547000        | 1001      1111     0         | 1        1000 | 11000   |    PASS
# 2555000        | 1001      1111     1         | 1        1001 | 11001   |    PASS
# 2563000        | 1010      0000     0         | 0        1010 | 01010   |    PASS
# 2571000        | 1010      0000     1         | 0        1011 | 01011   |    PASS
# 2579000        | 1010      0001     0         | 0        1011 | 01011   |    PASS
# 2587000        | 1010      0001     1         | 0        1100 | 01100   |    PASS
# 2595000        | 1010      0010     0         | 0        1100 | 01100   |    PASS
# 2603000        | 1010      0010     1         | 0        1101 | 01101   |    PASS
# 2611000        | 1010      0011     0         | 0        1101 | 01101   |    PASS
# 2619000        | 1010      0011     1         | 0        1110 | 01110   |    PASS
# 2627000        | 1010      0100     0         | 0        1110 | 01110   |    PASS
# 2635000        | 1010      0100     1         | 0        1111 | 01111   |    PASS
# 2643000        | 1010      0101     0         | 0        1111 | 01111   |    PASS
# 2651000        | 1010      0101     1         | 1        0000 | 10000   |    PASS
# 2659000        | 1010      0110     0         | 1        0000 | 10000   |    PASS
# 2667000        | 1010      0110     1         | 1        0001 | 10001   |    PASS
# 2675000        | 1010      0111     0         | 1        0001 | 10001   |    PASS
# 2683000        | 1010      0111     1         | 1        0010 | 10010   |    PASS
# 2691000        | 1010      1000     0         | 1        0010 | 10010   |    PASS
# 2699000        | 1010      1000     1         | 1        0011 | 10011   |    PASS
# 2707000        | 1010      1001     0         | 1        0011 | 10011   |    PASS
# 2715000        | 1010      1001     1         | 1        0100 | 10100   |    PASS
# 2723000        | 1010      1010     0         | 1        0100 | 10100   |    PASS